ITEM: TIMESTEP
572000
ITEM: NUMBER OF ATOMS
54000
ITEM: BOX BOUNDS pp pp pp
9.4468234471219273e+02 1.0553176552874613e+03
9.4468234471219273e+02 1.0553176552874613e+03
9.4468234471219273e+02 1.0553176552874613e+03
ITEM: ATOMS id mol type x y z 
12126 7 1 973.8 948.43 944.715 
12127 7 1 973.767 948.479 944.691 
47986 24 1 973.784 958.511 947.566 
47985 24 1 973.78 958.547 947.586 
47987 24 1 973.787 958.475 947.547 
47988 24 1 973.791 958.439 947.527 
47989 24 1 973.795 958.403 947.508 
47991 24 1 973.803 958.33 947.469 
47990 24 1 973.799 958.367 947.488 
47992 24 1 973.807 958.294 947.449 
47984 24 1 973.776 958.583 947.605 
47983 24 1 973.772 958.619 947.625 
47982 24 1 973.768 958.656 947.644 
47979 24 1 973.755 958.765 947.701 
47981 24 1 973.764 958.692 947.663 
47980 24 1 973.759 958.728 947.682 
47978 24 1 973.751 958.801 947.721 
47977 24 1 973.747 958.837 947.74 
47976 24 1 973.743 958.873 947.76 
47975 24 1 973.739 958.909 947.779 
47974 24 1 973.734 958.946 947.799 
47973 24 1 973.73 958.982 947.818 
47972 24 1 973.726 959.018 947.838 
47971 24 1 973.721 959.055 947.857 
47970 24 1 973.717 959.091 947.876 
47969 24 1 973.713 959.128 947.895 
47968 24 1 973.708 959.164 947.914 
47967 24 1 973.704 959.201 947.934 
47966 24 1 973.7 959.237 947.953 
47965 24 1 973.695 959.273 947.973 
47964 24 1 973.691 959.309 947.992 
47963 24 1 973.687 959.345 948.012 
47962 24 1 973.683 959.381 948.031 
47961 24 1 973.679 959.418 948.051 
47960 24 1 973.675 959.454 948.07 
47959 24 1 973.67 959.491 948.089 
47958 24 1 973.666 959.528 948.109 
47956 24 1 973.657 959.6 948.147 
47957 24 1 973.661 959.564 948.128 
47955 24 1 973.653 959.636 948.167 
47954 24 1 973.649 959.672 948.186 
47953 24 1 973.644 959.708 948.206 
47951 24 1 973.636 959.781 948.245 
47952 24 1 973.64 959.744 948.225 
47949 24 1 973.628 959.852 948.284 
47950 24 1 973.632 959.816 948.264 
47947 24 1 973.62 959.925 948.322 
47948 24 1 973.624 959.888 948.303 
47946 24 1 973.616 959.961 948.342 
47937 24 1 973.58 960.286 948.516 
47941 24 1 973.596 960.141 948.437 
47942 24 1 973.6 960.105 948.418 
47943 24 1 973.605 960.069 948.399 
47945 24 1 973.612 959.997 948.361 
47944 24 1 973.609 960.033 948.38 
47940 24 1 973.592 960.177 948.457 
47935 24 1 973.571 960.358 948.554 
47936 24 1 973.575 960.322 948.535 
47938 24 1 973.584 960.249 948.496 
47939 24 1 973.588 960.213 948.477 
47932 24 1 973.558 960.466 948.612 
47931 24 1 973.554 960.502 948.631 
47933 24 1 973.562 960.43 948.593 
47934 24 1 973.567 960.394 948.574 
47929 24 1 973.546 960.574 948.67 
47930 24 1 973.55 960.538 948.651 
47927 24 1 973.538 960.646 948.709 
47928 24 1 973.542 960.61 948.69 
47926 24 1 973.534 960.682 948.729 
47924 24 1 973.524 960.755 948.768 
47923 24 1 973.52 960.791 948.788 
47925 24 1 973.529 960.718 948.748 
47905 24 1 973.44 961.441 949.136 
47907 24 1 973.449 961.369 949.097 
47921 24 1 973.511 960.864 948.827 
47922 24 1 973.515 960.827 948.808 
47920 24 1 973.506 960.9 948.847 
47908 24 1 973.453 961.332 949.078 
47912 24 1 973.471 961.188 949.001 
47910 24 1 973.462 961.26 949.039 
47906 24 1 973.444 961.405 949.117 
47919 24 1 973.502 960.936 948.866 
47904 24 1 973.436 961.478 949.155 
47913 24 1 973.475 961.152 948.982 
47914 24 1 973.48 961.117 948.962 
47916 24 1 973.489 961.045 948.924 
47918 24 1 973.497 960.972 948.885 
47917 24 1 973.493 961.009 948.904 
47915 24 1 973.484 961.081 948.943 
47909 24 1 973.457 961.296 949.059 
47911 24 1 973.466 961.224 949.02 
47902 24 1 973.427 961.551 949.193 
47901 24 1 973.422 961.587 949.212 
47896 24 1 973.4 961.768 949.307 
47898 24 1 973.409 961.696 949.268 
47900 24 1 973.418 961.623 949.23 
47897 24 1 973.404 961.732 949.288 
47899 24 1 973.413 961.66 949.249 
47903 24 1 973.431 961.514 949.174 
47889 24 1 973.369 962.02 949.444 
47886 24 1 973.356 962.128 949.502 
47885 24 1 973.352 962.164 949.521 
47887 24 1 973.361 962.092 949.482 
47888 24 1 973.365 962.056 949.463 
47890 24 1 973.374 961.984 949.424 
47891 24 1 973.378 961.948 949.405 
47892 24 1 973.382 961.912 949.385 
47894 24 1 973.391 961.84 949.346 
47893 24 1 973.387 961.876 949.366 
47895 24 1 973.395 961.804 949.326 
47882 24 1 973.339 962.273 949.578 
47881 24 1 973.334 962.309 949.598 
47884 24 1 973.348 962.2 949.54 
47883 24 1 973.343 962.237 949.559 
47880 24 1 973.33 962.346 949.617 
47879 24 1 973.325 962.382 949.637 
47878 24 1 973.321 962.418 949.656 
47877 24 1 973.317 962.454 949.676 
47876 24 1 973.312 962.49 949.696 
47875 24 1 973.308 962.527 949.715 
47873 24 1 973.299 962.598 949.754 
47874 24 1 973.304 962.562 949.735 
47872 24 1 973.294 962.634 949.773 
47871 24 1 973.29 962.671 949.793 
47870 24 1 973.286 962.707 949.812 
47869 24 1 973.281 962.743 949.832 
47868 24 1 973.277 962.779 949.851 
47867 24 1 973.273 962.816 949.871 
47866 24 1 973.269 962.852 949.89 
47865 24 1 973.264 962.888 949.909 
47864 24 1 973.26 962.924 949.928 
47863 24 1 973.256 962.96 949.948 
47862 24 1 973.252 962.997 949.967 
47861 24 1 973.247 963.033 949.986 
47860 24 1 973.243 963.069 950.005 
47859 24 1 973.239 963.105 950.024 
47837 24 1 973.142 963.902 950.45 
47836 24 1 973.137 963.938 950.469 
47835 24 1 973.133 963.974 950.489 
47855 24 1 973.221 963.25 950.101 
47854 24 1 973.217 963.286 950.121 
47849 24 1 973.195 963.468 950.217 
47848 24 1 973.19 963.505 950.236 
47847 24 1 973.186 963.541 950.256 
47853 24 1 973.213 963.323 950.14 
47852 24 1 973.208 963.359 950.159 
47851 24 1 973.204 963.395 950.178 
47850 24 1 973.199 963.432 950.198 
47858 24 1 973.234 963.142 950.044 
47857 24 1 973.23 963.178 950.063 
47856 24 1 973.225 963.214 950.082 
47846 24 1 973.182 963.577 950.275 
47845 24 1 973.177 963.613 950.295 
47844 24 1 973.173 963.649 950.314 
47843 24 1 973.169 963.685 950.334 
47838 24 1 973.147 963.865 950.431 
47842 24 1 973.165 963.721 950.353 
47841 24 1 973.161 963.757 950.373 
47840 24 1 973.156 963.793 950.392 
47839 24 1 973.152 963.829 950.411 
47834 24 1 973.128 964.01 950.508 
47833 24 1 973.124 964.047 950.527 
47832 24 1 973.119 964.083 950.547 
47831 24 1 973.114 964.119 950.566 
47830 24 1 973.11 964.155 950.585 
47829 24 1 973.105 964.191 950.605 
47817 24 1 973.051 964.624 950.837 
47828 24 1 973.1 964.228 950.624 
47827 24 1 973.096 964.264 950.644 
47816 24 1 973.046 964.66 950.857 
47806 24 1 973.001 965.024 951.052 
47797 24 1 972.959 965.349 951.226 
47821 24 1 973.068 964.48 950.759 
47818 24 1 973.055 964.588 950.818 
47798 24 1 972.963 965.313 951.206 
47810 24 1 973.019 964.879 950.974 
47805 24 1 972.996 965.061 951.071 
47814 24 1 973.038 964.733 950.896 
47815 24 1 973.042 964.697 950.877 
47804 24 1 972.991 965.097 951.09 
47813 24 1 973.033 964.77 950.916 
47803 24 1 972.986 965.132 951.109 
47799 24 1 972.968 965.277 951.187 
47800 24 1 972.973 965.241 951.167 
47802 24 1 972.982 965.168 951.128 
47801 24 1 972.977 965.205 951.148 
47812 24 1 973.029 964.806 950.936 
47811 24 1 973.024 964.843 950.955 
47807 24 1 973.005 964.988 951.032 
47808 24 1 973.01 964.952 951.013 
47809 24 1 973.014 964.916 950.994 
47826 24 1 973.091 964.3 950.663 
47824 24 1 973.082 964.372 950.702 
47825 24 1 973.087 964.336 950.682 
47823 24 1 973.078 964.408 950.721 
47822 24 1 973.073 964.444 950.74 
47819 24 1 973.059 964.552 950.798 
47820 24 1 973.063 964.516 950.779 
12089 7 1 975.031 946.619 945.631 
12099 7 1 974.7 947.109 945.382 
12106 7 1 974.465 947.451 945.21 
12105 7 1 974.499 947.402 945.235 
12104 7 1 974.532 947.354 945.259 
12103 7 1 974.566 947.305 945.284 
12098 7 1 974.733 947.061 945.407 
12102 7 1 974.599 947.256 945.308 
12101 7 1 974.633 947.207 945.332 
12100 7 1 974.666 947.158 945.357 
12107 7 1 974.432 947.5 945.185 
12108 7 1 974.399 947.549 945.16 
12097 7 1 974.766 947.012 945.432 
12109 7 1 974.365 947.598 945.136 
12096 7 1 974.799 946.963 945.456 
12095 7 1 974.833 946.913 945.481 
12092 7 1 974.931 946.766 945.556 
12091 7 1 974.964 946.717 945.581 
12090 7 1 974.998 946.668 945.606 
12093 7 1 974.898 946.815 945.531 
12094 7 1 974.866 946.864 945.506 
12121 7 1 973.967 948.184 944.839 
12117 7 1 974.1 947.989 944.938 
12120 7 1 974 948.136 944.864 
12122 7 1 973.933 948.233 944.814 
12123 7 1 973.9 948.282 944.789 
12119 7 1 974.033 948.087 944.889 
12118 7 1 974.067 948.038 944.914 
12116 7 1 974.133 947.94 944.963 
12110 7 1 974.332 947.647 945.111 
12111 7 1 974.299 947.696 945.087 
12112 7 1 974.266 947.745 945.062 
12113 7 1 974.232 947.793 945.038 
12114 7 1 974.199 947.842 945.013 
12115 7 1 974.166 947.891 944.988 
12124 7 1 973.866 948.332 944.764 
12125 7 1 973.833 948.381 944.74 
12069 7 1 975.697 945.643 946.128 
12068 7 1 975.73 945.595 946.153 
12065 7 1 975.83 945.448 946.228 
12066 7 1 975.797 945.497 946.203 
12064 7 1 975.864 945.399 946.252 
12063 7 1 975.897 945.35 946.277 
12051 7 1 976.296 944.762 946.577 
12050 7 1 976.329 944.713 946.601 
12054 7 1 976.196 944.909 946.502 
12053 7 1 976.23 944.86 946.527 
12052 7 1 976.263 944.811 946.552 
12055 7 1 976.163 944.958 946.477 
12056 7 1 976.13 945.007 946.452 
12057 7 1 976.097 945.056 946.427 
12058 7 1 976.064 945.105 946.402 
12061 7 1 975.964 945.252 946.327 
12060 7 1 975.997 945.203 946.352 
12059 7 1 976.03 945.154 946.377 
12062 7 1 975.93 945.301 946.302 
12067 7 1 975.764 945.546 946.178 
12087 7 1 975.098 946.522 945.681 
12088 7 1 975.064 946.57 945.656 
12086 7 1 975.131 946.473 945.705 
12084 7 1 975.198 946.375 945.755 
12085 7 1 975.165 946.424 945.73 
12083 7 1 975.231 946.326 945.78 
12082 7 1 975.264 946.277 945.805 
12076 7 1 975.465 945.985 945.955 
12077 7 1 975.432 946.034 945.93 
12081 7 1 975.298 946.229 945.83 
12078 7 1 975.398 946.082 945.905 
12072 7 1 975.598 945.79 946.054 
12070 7 1 975.664 945.692 946.103 
12071 7 1 975.631 945.741 946.078 
12073 7 1 975.565 945.838 946.029 
12074 7 1 975.531 945.887 946.005 
12075 7 1 975.498 945.936 945.98 
12080 7 1 975.331 946.18 945.855 
12079 7 1 975.365 946.131 945.88 
47999 24 1 973.835 958.039 947.314 
47997 24 1 973.828 958.112 947.353 
47998 24 1 973.832 958.075 947.334 
48000 24 1 973.839 958.003 947.295 
47995 24 1 973.82 958.185 947.391 
47994 24 1 973.816 958.222 947.411 
47996 24 1 973.824 958.149 947.372 
47993 24 1 973.811 958.258 947.43 
8479 5 1 981.206 965.267 950.686 
8489 5 1 981.105 965.05 951.299 
8482 5 1 981.169 965.182 950.86 
8481 5 1 981.18 965.208 950.801 
8480 5 1 981.193 965.236 950.743 
8483 5 1 981.157 965.158 950.92 
8490 5 1 981.098 965.038 951.364 
8484 5 1 981.147 965.135 950.982 
8485 5 1 981.137 965.114 951.044 
8486 5 1 981.128 965.095 951.107 
8488 5 1 981.112 965.063 951.234 
8487 5 1 981.119 965.078 951.17 
8477 5 1 981.236 965.332 950.575 
8491 5 1 981.093 965.029 951.429 
8478 5 1 981.221 965.299 950.63 
8476 5 1 981.251 965.368 950.522 
52729 27 1 981.172 968.873 948.09 
52730 27 1 981.133 968.831 948.13 
52732 27 1 981.055 968.747 948.211 
52731 27 1 981.094 968.789 948.171 
52733 27 1 981.016 968.705 948.252 
52740 27 1 980.742 968.412 948.534 
52739 27 1 980.781 968.453 948.494 
52738 27 1 980.82 968.495 948.454 
52737 27 1 980.859 968.537 948.413 
52736 27 1 980.898 968.579 948.373 
52734 27 1 980.977 968.663 948.292 
52735 27 1 980.937 968.621 948.333 
52759 27 1 980.117 967.633 949.414 
52758 27 1 980.136 967.67 949.357 
52760 27 1 980.101 967.597 949.472 
52761 27 1 980.087 967.561 949.531 
52757 27 1 980.157 967.708 949.301 
52752 27 1 980.292 967.907 949.042 
52753 27 1 980.261 967.867 949.091 
52748 27 1 980.431 968.074 948.861 
52746 27 1 980.508 968.158 948.778 
52747 27 1 980.469 968.116 948.819 
52749 27 1 980.394 968.032 948.904 
52751 27 1 980.324 967.948 948.995 
52750 27 1 980.358 967.99 948.949 
52755 27 1 980.205 967.786 949.192 
52756 27 1 980.18 967.747 949.245 
52754 27 1 980.232 967.826 949.141 
52745 27 1 980.547 968.2 948.737 
52744 27 1 980.585 968.242 948.697 
52741 27 1 980.702 968.37 948.575 
52742 27 1 980.663 968.327 948.615 
52743 27 1 980.624 968.285 948.656 
8469 5 1 981.385 965.658 950.188 
8470 5 1 981.363 965.612 950.231 
8475 5 1 981.268 965.405 950.47 
8474 5 1 981.285 965.443 950.419 
8473 5 1 981.304 965.483 950.369 
8471 5 1 981.342 965.568 950.275 
8472 5 1 981.322 965.525 950.322 
8468 5 1 981.408 965.705 950.147 
8466 5 1 981.456 965.803 950.071 
8467 5 1 981.431 965.753 950.108 
52762 27 1 980.075 967.526 949.59 
52763 27 1 980.065 967.493 949.651 
52767 27 1 980.046 967.373 949.905 
52766 27 1 980.048 967.401 949.841 
52764 27 1 980.057 967.461 949.713 
52765 27 1 980.051 967.43 949.777 
52768 27 1 980.047 967.347 949.97 
52772 27 1 980.075 967.256 950.235 
52774 27 1 980.105 967.22 950.369 
52773 27 1 980.089 967.237 950.302 
52770 27 1 980.056 967.298 950.102 
52769 27 1 980.05 967.321 950.036 
52775 27 1 980.123 967.204 950.435 
52771 27 1 980.064 967.276 950.169 
52776 27 1 980.144 967.189 950.501 
8415 5 1 981.288 968.706 950.458 
8416 5 1 981.338 968.667 950.44 
8418 5 1 981.433 968.585 950.402 
8414 5 1 981.236 968.743 950.476 
8413 5 1 981.184 968.778 950.493 
8417 5 1 981.386 968.627 950.422 
47796 24 1 972.954 965.385 951.245 
47795 24 1 972.949 965.421 951.264 
47793 24 1 972.94 965.494 951.303 
47784 24 1 972.898 965.821 951.476 
47790 24 1 972.926 965.603 951.36 
47794 24 1 972.944 965.457 951.283 
47786 24 1 972.907 965.749 951.437 
47785 24 1 972.903 965.785 951.456 
47787 24 1 972.912 965.713 951.417 
47788 24 1 972.917 965.676 951.398 
47789 24 1 972.921 965.64 951.379 
47791 24 1 972.931 965.566 951.341 
47792 24 1 972.935 965.53 951.322 
52782 27 1 980.325 967.118 950.876 
52779 27 1 980.223 967.151 950.693 
52780 27 1 980.255 967.14 950.755 
52777 27 1 980.168 967.176 950.566 
52781 27 1 980.289 967.129 950.816 
52778 27 1 980.194 967.163 950.63 
52786 27 1 980.492 967.077 951.099 
52784 27 1 980.404 967.097 950.991 
52785 27 1 980.447 967.087 951.046 
52783 27 1 980.364 967.108 950.934 
52788 27 1 980.588 967.056 951.2 
52789 27 1 980.639 967.046 951.248 
52791 27 1 980.747 967.026 951.337 
52793 27 1 980.861 967.005 951.416 
52790 27 1 980.692 967.036 951.293 
52792 27 1 980.803 967.016 951.378 
52787 27 1 980.539 967.066 951.151 
52794 27 1 980.92 966.994 951.452 
8410 5 1 981.018 968.874 950.54 
8412 5 1 981.13 968.812 950.509 
8411 5 1 981.075 968.843 950.525 
52726 27 1 981.289 969 947.968 
52722 27 1 981.444 969.167 947.806 
52724 27 1 981.367 969.084 947.887 
52723 27 1 981.405 969.126 947.846 
52725 27 1 981.328 969.042 947.927 
52727 27 1 981.25 968.957 948.009 
52728 27 1 981.211 968.915 948.049 
8325 5 1 975.632 970.015 951.39 
8328 5 1 975.824 969.977 951.36 
8330 5 1 975.951 969.952 951.34 
8329 5 1 975.887 969.965 951.35 
8340 5 1 976.586 969.826 951.244 
8339 5 1 976.523 969.839 951.254 
8338 5 1 976.459 969.852 951.264 
8337 5 1 976.395 969.865 951.273 
8336 5 1 976.332 969.877 951.283 
8335 5 1 976.268 969.89 951.293 
8331 5 1 976.014 969.94 951.33 
8334 5 1 976.205 969.903 951.302 
8327 5 1 975.76 969.989 951.37 
8326 5 1 975.696 970.002 951.38 
8333 5 1 976.141 969.915 951.312 
8332 5 1 976.078 969.927 951.321 
8341 5 1 976.65 969.814 951.234 
8342 5 1 976.713 969.801 951.224 
8343 5 1 976.777 969.789 951.214 
8355 5 1 977.539 969.641 951.098 
8353 5 1 977.411 969.666 951.116 
8354 5 1 977.475 969.653 951.107 
8352 5 1 977.348 969.678 951.126 
8351 5 1 977.285 969.691 951.136 
8350 5 1 977.221 969.703 951.146 
8349 5 1 977.158 969.715 951.156 
8348 5 1 977.095 969.727 951.165 
8344 5 1 976.841 969.777 951.204 
8345 5 1 976.905 969.765 951.194 
8346 5 1 976.968 969.752 951.184 
8347 5 1 977.032 969.74 951.175 
8356 5 1 977.603 969.628 951.089 
8357 5 1 977.666 969.615 951.08 
8358 5 1 977.729 969.603 951.07 
8369 5 1 978.43 969.466 950.963 
8370 5 1 978.494 969.454 950.954 
8367 5 1 978.302 969.491 950.982 
8366 5 1 978.239 969.503 950.992 
8364 5 1 978.111 969.528 951.011 
8362 5 1 977.984 969.553 951.031 
8361 5 1 977.92 969.566 951.04 
8363 5 1 978.047 969.541 951.021 
8359 5 1 977.793 969.591 951.061 
8360 5 1 977.857 969.578 951.05 
8365 5 1 978.175 969.515 951.002 
8368 5 1 978.366 969.478 950.973 
8371 5 1 978.558 969.441 950.944 
8373 5 1 978.685 969.416 950.925 
8372 5 1 978.621 969.429 950.935 
8386 5 1 979.513 969.252 950.799 
8385 5 1 979.449 969.265 950.809 
8384 5 1 979.386 969.277 950.818 
8383 5 1 979.322 969.289 950.828 
8380 5 1 979.132 969.328 950.856 
8378 5 1 979.005 969.353 950.876 
8376 5 1 978.876 969.377 950.896 
8377 5 1 978.941 969.365 950.886 
8379 5 1 979.068 969.341 950.866 
8375 5 1 978.812 969.39 950.906 
8374 5 1 978.748 969.403 950.915 
8382 5 1 979.259 969.302 950.837 
8381 5 1 979.195 969.315 950.847 
8387 5 1 979.576 969.24 950.79 
8388 5 1 979.64 969.228 950.78 
8389 5 1 979.704 969.215 950.771 
8400 5 1 980.406 969.079 950.663 
8401 5 1 980.47 969.065 950.654 
8399 5 1 980.342 969.091 950.673 
8396 5 1 980.151 969.129 950.703 
8397 5 1 980.214 969.116 950.693 
8392 5 1 979.896 969.178 950.742 
8393 5 1 979.959 969.166 950.732 
8394 5 1 980.023 969.154 950.723 
8395 5 1 980.087 969.141 950.713 
8391 5 1 979.832 969.19 950.752 
8390 5 1 979.768 969.203 950.761 
8398 5 1 980.278 969.104 950.683 
8402 5 1 980.533 969.051 950.643 
8403 5 1 980.597 969.035 950.633 
8404 5 1 980.659 969.018 950.621 
8408 5 1 980.902 968.929 950.569 
8407 5 1 980.843 968.954 950.583 
8406 5 1 980.783 968.977 950.597 
8405 5 1 980.721 968.998 950.609 
8409 5 1 980.961 968.902 950.555 
8317 5 1 975.124 970.115 951.467 
8322 5 1 975.441 970.053 951.419 
8323 5 1 975.505 970.041 951.409 
8320 5 1 975.315 970.077 951.437 
8324 5 1 975.568 970.028 951.4 
8321 5 1 975.378 970.065 951.428 
8319 5 1 975.251 970.09 951.447 
8318 5 1 975.188 970.102 951.457 
47766 24 1 972.814 966.475 951.822 
47765 24 1 972.809 966.512 951.842 
47769 24 1 972.828 966.366 951.764 
47770 24 1 972.833 966.33 951.745 
47767 24 1 972.819 966.439 951.803 
47768 24 1 972.823 966.403 951.784 
47771 24 1 972.837 966.294 951.726 
47772 24 1 972.842 966.258 951.706 
47774 24 1 972.852 966.185 951.668 
47775 24 1 972.857 966.148 951.65 
47777 24 1 972.866 966.075 951.612 
47776 24 1 972.862 966.111 951.631 
47778 24 1 972.871 966.039 951.593 
47773 24 1 972.847 966.221 951.687 
47762 24 1 972.796 966.622 951.9 
47761 24 1 972.792 966.658 951.92 
47764 24 1 972.805 966.549 951.861 
47763 24 1 972.801 966.585 951.881 
47780 24 1 972.88 965.966 951.554 
47779 24 1 972.875 966.002 951.573 
47760 24 1 972.788 966.695 951.939 
47757 24 1 972.774 966.804 951.996 
47756 24 1 972.769 966.84 952.016 
47754 24 1 972.76 966.914 952.054 
47759 24 1 972.783 966.731 951.958 
47758 24 1 972.779 966.768 951.977 
47755 24 1 972.765 966.877 952.035 
47745 24 1 972.718 967.24 952.228 
47739 24 1 972.691 967.458 952.346 
47743 24 1 972.709 967.313 952.267 
47746 24 1 972.723 967.204 952.209 
47741 24 1 972.7 967.386 952.307 
47742 24 1 972.705 967.349 952.287 
47738 24 1 972.686 967.494 952.365 
47744 24 1 972.714 967.276 952.248 
47740 24 1 972.695 967.422 952.326 
47737 24 1 972.681 967.53 952.384 
47747 24 1 972.727 967.168 952.19 
47748 24 1 972.732 967.131 952.17 
47749 24 1 972.737 967.095 952.151 
47751 24 1 972.747 967.023 952.112 
47753 24 1 972.756 966.95 952.073 
47750 24 1 972.742 967.059 952.132 
47752 24 1 972.751 966.987 952.093 
47736 24 1 972.676 967.566 952.403 
47735 24 1 972.671 967.602 952.422 
47734 24 1 972.666 967.638 952.441 
47733 24 1 972.661 967.675 952.46 
47730 24 1 972.646 967.784 952.519 
47732 24 1 972.656 967.711 952.48 
47731 24 1 972.651 967.747 952.499 
47726 24 1 972.628 967.929 952.596 
47723 24 1 972.614 968.038 952.653 
47724 24 1 972.619 968.002 952.634 
47725 24 1 972.623 967.965 952.615 
47709 24 1 972.547 968.543 952.924 
47710 24 1 972.552 968.507 952.904 
47712 24 1 972.562 968.435 952.865 
47711 24 1 972.557 968.471 952.885 
47713 24 1 972.566 968.399 952.846 
47715 24 1 972.576 968.327 952.807 
47714 24 1 972.571 968.363 952.827 
47716 24 1 972.581 968.291 952.788 
47718 24 1 972.59 968.218 952.748 
47717 24 1 972.585 968.254 952.768 
47721 24 1 972.604 968.11 952.691 
47720 24 1 972.6 968.146 952.71 
47719 24 1 972.595 968.182 952.729 
47722 24 1 972.609 968.074 952.672 
47708 24 1 972.542 968.579 952.944 
47729 24 1 972.642 967.82 952.538 
47727 24 1 972.633 967.893 952.577 
47728 24 1 972.637 967.856 952.558 
47682 24 1 972.418 969.522 953.444 
47695 24 1 972.479 969.052 953.194 
47707 24 1 972.537 968.615 952.964 
47705 24 1 972.527 968.688 953.002 
47706 24 1 972.532 968.652 952.983 
47702 24 1 972.514 968.797 953.059 
47704 24 1 972.523 968.724 953.021 
47703 24 1 972.518 968.761 953.04 
47700 24 1 972.504 968.87 953.098 
47701 24 1 972.509 968.834 953.079 
47691 24 1 972.46 969.198 953.271 
47696 24 1 972.484 969.015 953.175 
47689 24 1 972.45 969.27 953.309 
47690 24 1 972.455 969.234 953.29 
47694 24 1 972.474 969.088 953.213 
47693 24 1 972.469 969.125 953.232 
47686 24 1 972.436 969.377 953.367 
47692 24 1 972.465 969.161 953.251 
47688 24 1 972.446 969.306 953.328 
47687 24 1 972.441 969.342 953.347 
47698 24 1 972.494 968.943 953.137 
47697 24 1 972.489 968.979 953.156 
47699 24 1 972.499 968.907 953.118 
47684 24 1 972.427 969.449 953.405 
47685 24 1 972.432 969.413 953.386 
47683 24 1 972.422 969.486 953.424 
8249 5 1 970.884 970.903 952.444 
8250 5 1 970.941 970.894 952.413 
8251 5 1 970.997 970.884 952.382 
8254 5 1 971.167 970.855 952.288 
8252 5 1 971.053 970.874 952.351 
8253 5 1 971.11 970.865 952.319 
8257 5 1 971.341 970.829 952.198 
8256 5 1 971.282 970.837 952.227 
8255 5 1 971.224 970.846 952.257 
8258 5 1 971.4 970.82 952.171 
8259 5 1 971.459 970.812 952.144 
8260 5 1 971.519 970.803 952.119 
8261 5 1 971.58 970.794 952.095 
8262 5 1 971.641 970.785 952.072 
8263 5 1 971.702 970.776 952.051 
8264 5 1 971.764 970.767 952.03 
8265 5 1 971.826 970.758 952.011 
8266 5 1 971.888 970.748 951.993 
8268 5 1 972.013 970.729 951.961 
8267 5 1 971.95 970.739 951.977 
8270 5 1 972.139 970.708 951.933 
8271 5 1 972.202 970.697 951.921 
8269 5 1 972.076 970.718 951.947 
8272 5 1 972.266 970.685 951.91 
8273 5 1 972.33 970.673 951.899 
8275 5 1 972.457 970.648 951.879 
8274 5 1 972.393 970.66 951.889 
8276 5 1 972.52 970.635 951.869 
8277 5 1 972.584 970.623 951.859 
8279 5 1 972.711 970.598 951.839 
8278 5 1 972.647 970.611 951.849 
8280 5 1 972.774 970.586 951.829 
8281 5 1 972.838 970.573 951.82 
8229 5 1 969.754 971.088 953.076 
8231 5 1 969.867 971.07 953.013 
8230 5 1 969.81 971.079 953.044 
8225 5 1 969.528 971.127 953.204 
8232 5 1 969.923 971.06 952.981 
8226 5 1 969.584 971.117 953.172 
8224 5 1 969.471 971.136 953.236 
8227 5 1 969.641 971.108 953.14 
8228 5 1 969.697 971.098 953.108 
8234 5 1 970.037 971.041 952.918 
8235 5 1 970.093 971.032 952.886 
8236 5 1 970.15 971.023 952.854 
8241 5 1 970.432 970.977 952.697 
8242 5 1 970.489 970.968 952.666 
8243 5 1 970.546 970.959 952.634 
8244 5 1 970.603 970.949 952.603 
8239 5 1 970.319 970.995 952.76 
8240 5 1 970.375 970.986 952.728 
8238 5 1 970.262 971.004 952.791 
8248 5 1 970.828 970.912 952.475 
8247 5 1 970.772 970.921 952.507 
8246 5 1 970.716 970.931 952.539 
8245 5 1 970.659 970.94 952.571 
8237 5 1 970.206 971.013 952.822 
8233 5 1 969.98 971.051 952.95 
47681 24 1 972.413 969.559 953.463 
47680 24 1 972.408 969.595 953.483 
47679 24 1 972.404 969.632 953.502 
47642 24 1 972.153 971.061 953.9 
47641 24 1 972.143 971.101 953.9 
47675 24 1 972.386 969.777 953.577 
47666 24 1 972.338 970.112 953.728 
47678 24 1 972.4 969.668 953.521 
47677 24 1 972.395 969.704 953.54 
47676 24 1 972.391 969.74 953.559 
47667 24 1 972.344 970.073 953.713 
47669 24 1 972.355 969.998 953.682 
47670 24 1 972.36 969.96 953.666 
47671 24 1 972.366 969.923 953.649 
47672 24 1 972.371 969.887 953.631 
47645 24 1 972.184 970.942 953.896 
47673 24 1 972.376 969.85 953.614 
47665 24 1 972.332 970.15 953.742 
47668 24 1 972.349 970.035 953.698 
47643 24 1 972.164 971.022 953.899 
47644 24 1 972.174 970.982 953.898 
47674 24 1 972.381 969.813 953.595 
47646 24 1 972.193 970.903 953.894 
47647 24 1 972.203 970.863 953.891 
47653 24 1 972.252 970.624 953.863 
47654 24 1 972.26 970.584 953.856 
47652 24 1 972.244 970.663 953.869 
47649 24 1 972.22 970.783 953.884 
47650 24 1 972.228 970.743 953.88 
47651 24 1 972.236 970.703 953.875 
47656 24 1 972.274 970.504 953.841 
47655 24 1 972.267 970.544 953.849 
47657 24 1 972.281 970.464 953.833 
47661 24 1 972.308 970.306 953.792 
47660 24 1 972.301 970.346 953.803 
47658 24 1 972.288 970.425 953.824 
47659 24 1 972.295 970.385 953.814 
47648 24 1 972.211 970.823 953.888 
47664 24 1 972.326 970.189 953.756 
47662 24 1 972.314 970.267 953.781 
47663 24 1 972.32 970.228 953.769 
8551 5 1 980.861 964.675 955.354 
8550 5 1 980.865 964.681 955.289 
8552 5 1 980.857 964.669 955.419 
8547 5 1 980.878 964.699 955.093 
8548 5 1 980.874 964.693 955.158 
8549 5 1 980.869 964.687 955.224 
8545 5 1 980.885 964.711 954.961 
8546 5 1 980.881 964.705 955.027 
8554 5 1 980.85 964.657 955.551 
8553 5 1 980.854 964.663 955.485 
8556 5 1 980.844 964.644 955.682 
8555 5 1 980.847 964.651 955.617 
8557 5 1 980.84 964.638 955.748 
8558 5 1 980.836 964.632 955.813 
8560 5 1 980.829 964.621 955.943 
8559 5 1 980.832 964.627 955.878 
8567 5 1 980.801 964.578 956.399 
8566 5 1 980.805 964.584 956.334 
8565 5 1 980.809 964.59 956.269 
8561 5 1 980.825 964.615 956.008 
8562 5 1 980.821 964.609 956.074 
8564 5 1 980.813 964.597 956.204 
8563 5 1 980.817 964.603 956.139 
8569 5 1 980.793 964.566 956.53 
8568 5 1 980.797 964.572 956.465 
8570 5 1 980.79 964.559 956.595 
8571 5 1 980.786 964.553 956.661 
8572 5 1 980.781 964.547 956.726 
8573 5 1 980.777 964.541 956.792 
8574 5 1 980.773 964.535 956.858 
8575 5 1 980.768 964.529 956.923 
8576 5 1 980.764 964.523 956.988 
8582 5 1 980.742 964.487 957.38 
8579 5 1 980.754 964.506 957.185 
8578 5 1 980.757 964.511 957.119 
8577 5 1 980.76 964.517 957.054 
8580 5 1 980.75 964.499 957.25 
8581 5 1 980.746 964.493 957.315 
8584 5 1 980.735 964.475 957.511 
8585 5 1 980.732 964.47 957.576 
8583 5 1 980.739 964.481 957.446 
8586 5 1 980.728 964.464 957.642 
8587 5 1 980.724 964.457 957.707 
8589 5 1 980.716 964.445 957.837 
8588 5 1 980.72 964.451 957.772 
8590 5 1 980.712 964.438 957.902 
8591 5 1 980.708 964.432 957.968 
8592 5 1 980.704 964.426 958.033 
8598 5 1 980.681 964.39 958.425 
8594 5 1 980.697 964.414 958.164 
8595 5 1 980.693 964.408 958.229 
8593 5 1 980.7 964.42 958.098 
8596 5 1 980.689 964.402 958.294 
8597 5 1 980.685 964.396 958.36 
8600 5 1 980.673 964.379 958.556 
8599 5 1 980.677 964.385 958.491 
8601 5 1 980.67 964.374 958.621 
8602 5 1 980.667 964.368 958.686 
8603 5 1 980.663 964.362 958.751 
8604 5 1 980.66 964.357 958.815 
8608 5 1 980.646 964.332 959.077 
8605 5 1 980.656 964.35 958.881 
8607 5 1 980.65 964.338 959.011 
8609 5 1 980.642 964.326 959.142 
8606 5 1 980.653 964.344 958.946 
8610 5 1 980.638 964.32 959.207 
8611 5 1 980.635 964.313 959.272 
8612 5 1 980.631 964.307 959.338 
8613 5 1 980.627 964.301 959.403 
8614 5 1 980.623 964.296 959.468 
8615 5 1 980.619 964.29 959.534 
8616 5 1 980.616 964.284 959.599 
8625 5 1 980.581 964.232 960.187 
8628 5 1 980.57 964.213 960.381 
8626 5 1 980.577 964.225 960.252 
8627 5 1 980.573 964.219 960.317 
8621 5 1 980.597 964.256 959.925 
8618 5 1 980.608 964.272 959.73 
8617 5 1 980.612 964.278 959.665 
8623 5 1 980.589 964.244 960.056 
8622 5 1 980.593 964.25 959.99 
8619 5 1 980.604 964.267 959.795 
8624 5 1 980.585 964.238 960.121 
8620 5 1 980.601 964.261 959.86 
8641 5 1 980.521 964.136 961.228 
8643 5 1 980.513 964.124 961.359 
8642 5 1 980.517 964.13 961.294 
8629 5 1 980.566 964.207 960.446 
8630 5 1 980.562 964.201 960.511 
8631 5 1 980.558 964.195 960.576 
8638 5 1 980.533 964.154 961.033 
8639 5 1 980.529 964.148 961.098 
8640 5 1 980.525 964.142 961.163 
8636 5 1 980.54 964.166 960.903 
8637 5 1 980.537 964.16 960.969 
8632 5 1 980.555 964.189 960.641 
8633 5 1 980.551 964.184 960.707 
8635 5 1 980.544 964.172 960.838 
8634 5 1 980.547 964.178 960.772 
8501 5 1 981.055 964.966 952.084 
8503 5 1 981.048 964.954 952.216 
8498 5 1 981.065 964.983 951.888 
8499 5 1 981.062 964.978 951.953 
8502 5 1 981.051 964.96 952.15 
8506 5 1 981.037 964.937 952.412 
8505 5 1 981.041 964.943 952.347 
8500 5 1 981.058 964.972 952.019 
8497 5 1 981.069 964.989 951.822 
8504 5 1 981.044 964.948 952.281 
8496 5 1 981.072 964.995 951.757 
8495 5 1 981.076 965.001 951.691 
8494 5 1 981.08 965.007 951.626 
8493 5 1 981.084 965.013 951.56 
8492 5 1 981.088 965.021 951.495 
47782 24 1 972.889 965.893 951.515 
47783 24 1 972.893 965.857 951.495 
47781 24 1 972.884 965.93 951.534 
52797 27 1 981.106 966.958 951.547 
52800 27 1 981.3 966.917 951.619 
52795 27 1 980.981 966.982 951.486 
52802 27 1 981.433 966.886 951.653 
52796 27 1 981.043 966.97 951.518 
52801 27 1 981.366 966.902 951.638 
52798 27 1 981.17 966.945 951.574 
52799 27 1 981.235 966.931 951.598 
8286 5 1 973.154 970.509 951.769 
8288 5 1 973.281 970.483 951.749 
8291 5 1 973.471 970.445 951.72 
8294 5 1 973.66 970.407 951.689 
8295 5 1 973.724 970.395 951.68 
8296 5 1 973.787 970.382 951.671 
8293 5 1 973.597 970.42 951.699 
8292 5 1 973.534 970.432 951.709 
8287 5 1 973.217 970.496 951.759 
8289 5 1 973.344 970.47 951.74 
8285 5 1 973.091 970.522 951.779 
8282 5 1 972.901 970.56 951.81 
8290 5 1 973.407 970.457 951.73 
8284 5 1 973.028 970.534 951.789 
8283 5 1 972.964 970.547 951.8 
8297 5 1 973.85 970.368 951.661 
8306 5 1 974.424 970.254 951.573 
8307 5 1 974.488 970.241 951.564 
8305 5 1 974.36 970.267 951.583 
8304 5 1 974.296 970.28 951.594 
8298 5 1 973.914 970.355 951.652 
8301 5 1 974.105 970.317 951.624 
8303 5 1 974.233 970.293 951.604 
8302 5 1 974.169 970.305 951.614 
8300 5 1 974.042 970.33 951.633 
8299 5 1 973.978 970.342 951.642 
8308 5 1 974.551 970.228 951.554 
8309 5 1 974.615 970.216 951.545 
8310 5 1 974.679 970.203 951.536 
8311 5 1 974.743 970.19 951.526 
8316 5 1 975.06 970.128 951.477 
8313 5 1 974.87 970.165 951.506 
8314 5 1 974.933 970.153 951.496 
8312 5 1 974.806 970.177 951.516 
8315 5 1 974.997 970.14 951.487 
8507 5 1 981.033 964.931 952.477 